<?xml version="1.0"?>
<VTKFile type="UnstructuredGrid" version="0.1" byte_order="LittleEndian" header_type="UInt32" compressor="vtkZLibDataCompressor">
  <UnstructuredGrid>
    <Piece NumberOfPoints="3" NumberOfCells="3">
      <PointData>
        <DataArray type="Int32" Name="FEM_NODE_ID" format="ascii" RangeMin="1" RangeMax="3">
          3 2 1
        </DataArray>
      </PointData>
      <CellData>
        <DataArray type="Int32" Name="FEM_ELEMENT_ID" format="ascii" RangeMin="1" RangeMax="3">
          1 2 3
        </DataArray>
        <Array type="String" Name="FEM_ELEMENT_TYPE" format="ascii">
          114 111 100 0 114 111 100 0 114 111 100 0
        </Array>
      </CellData>
      <Points>
        <DataArray type="Float32" Name="Points" NumberOfComponents="3" format="ascii" RangeMin="0" RangeMax="1">
          0 0 0 0 1 0
          -0.8660253882408142 0.5 0
          <InformationKey name="L2_NORM_RANGE" location="vtkDataArray" length="2">
            <Value index="0">
              0
            </Value>
            <Value index="1">
              1
            </Value>
          </InformationKey>
        </DataArray>
      </Points>
      <Cells>
        <DataArray type="Int64" Name="connectivity" format="ascii" RangeMin="0" RangeMax="2">
          0 1 1 2 2 0
        </DataArray>
        <DataArray type="Int64" Name="offsets" format="ascii" RangeMin="2" RangeMax="6">
          2 4 6
        </DataArray>
        <DataArray type="UInt8" Name="types" format="ascii" RangeMin="3" RangeMax="3">
          3 3 3
        </DataArray>
      </Cells>
    </Piece>
  </UnstructuredGrid>
</VTKFile>
