<?xml version="1.0"?>
<VTKFile type="UnstructuredGrid" version="0.1" byte_order="LittleEndian" header_type="UInt32" compressor="vtkZLibDataCompressor">
  <UnstructuredGrid>
    <Piece NumberOfPoints="8" NumberOfCells="13">
      <PointData>
        <DataArray type="Int32" Name="FEM_NODE_ID" format="ascii" RangeMin="1" RangeMax="8">
          1 2 3 4 5 6
          7 8
        </DataArray>
      </PointData>
      <CellData>
      </CellData>
      <Points>
        <DataArray type="Float32" Name="Points" NumberOfComponents="3" format="ascii" RangeMin="0" RangeMax="16000">
          0 0 0 4000 0 0
          8000 0 0 12000 0 0
          16000 0 0 12000 4000 0
          8000 4000 0 4000 4000 0
          <InformationKey name="L2_NORM_RANGE" location="vtkDataArray" length="2">
            <Value index="0">
              0
            </Value>
            <Value index="1">
              16000
            </Value>
          </InformationKey>
        </DataArray>
      </Points>
      <Cells>
        <DataArray type="Int64" Name="connectivity" format="ascii" RangeMin="0" RangeMax="7">
          0 1 1 2 2 3
          3 4 4 5 5 3
          5 2 5 6 6 2
          2 7 7 6 7 1
          7 0
        </DataArray>
        <DataArray type="Int64" Name="offsets" format="ascii" RangeMin="2" RangeMax="26">
          2 4 6 8 10 12
          14 16 18 20 22 24
          26
        </DataArray>
        <DataArray type="UInt8" Name="types" format="ascii" RangeMin="1" RangeMax="1">
          1 1 1 1 1 1
          1 1 1 1 1 1
          1
        </DataArray>
      </Cells>
    </Piece>
  </UnstructuredGrid>
</VTKFile>
